TITLE="mesh"
VARIABLES="X" "Y" "Z"
ZONE N=46346, E=22697, DATAPACKING=POINT, ZONETYPE=FEBRICK
1.1213862557e+02	9.7206479939e-01	3.9321733042e-04
1.1212308860e+02	9.9041911665e-01	3.9754150121e-04
1.1210481157e+02	1.0070235402e+00	4.0263979820e-04
1.1208385605e+02	1.0213700091e+00	4.0849643280e-04
1.1206048379e+02	1.0330681565e+00	4.1503904729e-04
1.1203510337e+02	1.0418740480e+00	4.3763300287e-04
1.1200810955e+02	1.0477088276e+00	4.5350611705e-04
1.1197986574e+02	1.0506156968e+00	4.6185712622e-04
1.1195068541e+02	1.0507509691e+00	4.7049299055e-04
1.1192078620e+02	1.0483120944e+00	1.1359968039e-03
1.1189033091e+02	1.0435290283e+00	1.1558236681e-03
1.1185940366e+02	1.0366028076e+00	1.1759701462e-03
1.1182806060e+02	1.0277407315e+00	1.1963982469e-03
1.1179631473e+02	1.0170961979e+00	1.2170983173e-03
1.1176416413e+02	1.0048232335e+00	1.2380703982e-03
1.1173159138e+02	9.9103401081e-01	1.3808485689e-03
1.1169856988e+02	9.7582508589e-01	1.5479432062e-03
1.1166506805e+02	9.5928570068e-01	1.5731237461e-03
1.1163105298e+02	9.4146911172e-01	1.6649545171e-03
1.1159648701e+02	9.2243777223e-01	1.7914231310e-03
1.1156133391e+02	9.0223249548e-01	1.8197046351e-03
1.1152555848e+02	8.8088172413e-01	1.8484888750e-03
1.1148912130e+02	8.5842111544e-01	1.8778066817e-03
1.1145198737e+02	8.3486752836e-01	1.9076854535e-03
1.1141412181e+02	8.1023435569e-01	2.1676691927e-03
1.1137548620e+02	7.8454001152e-01	2.2773622928e-03
1.1133604650e+02	7.5778982550e-01	2.3194020900e-03
1.1129576869e+02	7.2998730586e-01	2.4356079418e-03
1.1125461553e+02	7.0114029162e-01	2.4720464254e-03
1.1121255284e+02	6.7124849812e-01	2.5092857116e-03
1.1116954701e+02	6.4030942966e-01	2.5473546988e-03
1.1112556143e+02	6.0832444508e-01	2.6433430633e-03
1.1108056091e+02	5.7529081138e-01	2.8399208747e-03
1.1103451131e+02	5.4120313286e-01	2.8835990034e-03
1.1098737580e+02	5.0605929409e-01	3.4022619360e-03
1.1093911751e+02	4.6985602937e-01	3.4466122111e-03
1.1088970060e+02	4.3258771884e-01	3.4920168951e-03
1.1083908686e+02	3.9425155106e-01	3.5385100033e-03
1.1078723701e+02	3.5484543317e-01	3.5861264984e-03
1.1073411217e+02	3.1436611890e-01	3.6349009582e-03
1.1067967118e+02	2.7281308534e-01	4.3406540264e-03
1.1062387116e+02	2.3018776843e-01	4.4237805692e-03
1.1056666845e+02	1.8649234719e-01	4.7525528251e-03
1.1050801690e+02	1.4173223055e-01	4.7971429520e-03
1.1044786790e+02	9.5916101798e-02	4.8428572118e-03
1.1038617062e+02	4.9055864883e-02	4.9622714009e-03
1.1032287103e+02	1.1678208672e-03	5.0695836395e-03
1.1025791154e+02	-4.7726166895e-02	5.9803342348e-03
1.1019123065e+02	-9.7598192046e-02	6.0028132837e-03
1.1012276265e+02	-1.4841381199e-01	6.0258870308e-03
1.1005243665e+02	-2.0012934246e-01	6.0495789543e-03
1.0998017665e+02	-2.5269267098e-01	6.4481813902e-03
1.0990590141e+02	-3.0604129084e-01	6.6776207035e-03
1.0982952405e+02	-3.6010126602e-01	7.0121214518e-03
1.0975095315e+02	-4.1478839678e-01	6.9854273167e-03
1.0967009427e+02	-4.7000759831e-01	6.9579640943e-03
1.0958685045e+02	-5.2565504525e-01	7.3885586473e-03
1.0950112842e+02	-5.8162325277e-01	7.6238817611e-03
1.0941283765e+02	-6.3780226805e-01	7.6796375925e-03
1.0932189988e+02	-6.9409129759e-01	7.5566853180e-03
1.0922824689e+02	-7.5039873957e-01	7.4300883833e-03
1.0913182767e+02	-8.0665299758e-01	8.0406489616e-03
1.0903260456e+02	-8.6280029609e-01	7.9059933424e-03
1.0893055368e+02	-9.1880564608e-01	7.6159783428e-03
1.0882566017e+02	-9.7464876887e-01	7.3179292278e-03
1.0871791463e+02	-1.0303158873e+00	7.6913364636e-03
1.0860730723e+02	-1.0857905375e+00	7.2014515440e-03
1.0849383157e+02	-1.1410625935e+00	6.6359844849e-03
1.0837748241e+02	-1.1961219613e+00	6.6594237597e-03
1.0825823138e+02	-1.2508953069e+00	5.7674893024e-03
1.0813607053e+02	-1.3053629167e+00	4.7913072545e-03
1.0801108054e+02	-1.3597229571e+00	4.1071802686e-03
1.0788311736e+02	-1.4135672486e+00	2.6840544562e-03
1.0775179135e+02	-1.4658783883e+00	1.1413921348e-03
1.0761708952e+02	-1.5166068365e+00	-5.2556786935e-04
1.0747920009e+02	-1.5661841889e+00	-2.5992385202e-03
1.0733833937e+02	-1.6151008573e+00	-4.7498804146e-03
1.0719471123e+02	-1.6637990737e+00	-7.2385275499e-03
1.0704831823e+02	-1.7122094279e+00	-1.0017466971e-02
1.0689908906e+02	-1.7600770162e+00	-1.2837588885e-02
1.0674694861e+02	-1.8071258799e+00	-1.6248251687e-02
1.0659183383e+02	-1.8530991014e+00	-1.9445376174e-02
1.0643375029e+02	-1.8978932996e+00	-2.3307603447e-02
1.0627272742e+02	-1.9414478621e+00	-2.7242500458e-02
1.0610880076e+02	-1.9837038213e+00	-3.1251595227e-02
1.0594200789e+02	-2.0245930337e+00	-3.6312533138e-02
1.0577237428e+02	-2.0640033973e+00	-4.0794562375e-02
1.0559992527e+02	-2.1018089543e+00	-4.6935794321e-02
1.0542469060e+02	-2.1378806428e+00	-5.2337243473e-02
1.0524670582e+02	-2.1720845023e+00	-5.9532747018e-02
1.0506601751e+02	-2.2042737212e+00	-6.6197527661e-02
1.0488267942e+02	-2.2342950238e+00	-7.4460363564e-02
1.0469675076e+02	-2.2619918528e+00	-8.2548737485e-02
1.0450829695e+02	-2.2872137778e+00	-9.2017872034e-02
1.0431739661e+02	-2.3098853492e+00	-1.0155181506e-01
1.0412413876e+02	-2.3299732721e+00	-1.1241583993e-01
1.0392861882e+02	-2.3474506161e+00	-1.2347151615e-01
1.0373093827e+02	-2.3622936029e+00	-1.3567522990e-01
1.0353119922e+02	-2.3744058202e+00	-1.4828469138e-01
1.0332950255e+02	-2.3836100050e+00	-1.6175170430e-01
1.0312595396e+02	-2.3897230695e+00	-1.7609111915e-01
1.0292066434e+02	-2.3925619979e+00	-1.9067859204e-01
1.0271375544e+02	-2.3919912059e+00	-2.0651649318e-01
1.0250536149e+02	-2.3879318049e+00	-2.2254438978e-01
1.0229562217e+02	-2.3803124562e+00	-2.3933147274e-01
1.0208468197e+02	-2.3690667602e+00	-2.5693342704e-01
1.0187269241e+02	-2.3541167232e+00	-2.7443935815e-01
1.0165981442e+02	-2.3353523745e+00	-2.9298025319e-01
1.0144621350e+02	-2.3126629912e+00	-3.1135681879e-01
1.0123205875e+02	-2.2859422747e+00	-3.3006233777e-01
1.0101752313e+02	-2.2550885974e+00	-3.4860159457e-01
1.0080279603e+02	-2.2200020454e+00	-3.6714243394e-01
1.0058808085e+02	-2.1805853261e+00	-3.8529258206e-01
1.0037358342e+02	-2.1367471186e+00	-4.0311663360e-01
1.0015951107e+02	-2.0884026081e+00	-4.2056332664e-01
9.9946068134e+01	-2.0354914802e+00	-4.3773647448e-01
9.9733439274e+01	-1.9780588109e+00	-4.5468740329e-01
9.9521802101e+01	-1.9161920677e+00	-4.7157072251e-01
9.9311332941e+01	-1.8499872793e+00	-4.8836366456e-01
9.9102206212e+01	-1.7795486785e+00	-5.0515587387e-01
9.8894585849e+01	-1.7049918088e+00	-5.2188968340e-01
9.8688617982e+01	-1.6264461554e+00	-5.3857784686e-01
9.8484443904e+01	-1.5440487661e+00	-5.5519491812e-01
9.8282201301e+01	-1.4579430039e+00	-5.7169559164e-01
9.8082020119e+01	-1.3682810845e+00	-5.8804753069e-01
9.7884005273e+01	-1.2752377829e+00	-6.0423791897e-01
9.7688250327e+01	-1.1789982478e+00	-6.2022290185e-01
9.7494844535e+01	-1.0797511283e+00	-6.3600467457e-01
9.7303874549e+01	-9.7768239458e-01	-6.5155627929e-01
9.7115436709e+01	-8.7293608476e-01	-6.6688594049e-01
9.6929628804e+01	-7.6563771288e-01	-6.8197606203e-01
9.6746543117e+01	-6.5591559040e-01	-6.9683187251e-01
9.6566268843e+01	-5.4389770917e-01	-7.1144236350e-01
9.6388899929e+01	-4.2970235380e-01	-7.2580647895e-01
9.6214526562e+01	-3.1344696673e-01	-7.3991732987e-01
9.6043230440e+01	-1.9525312954e-01	-7.5377105129e-01
9.5875031244e+01	-7.5312908618e-02	-7.6736564347e-01
9.5709880088e+01	4.6101330148e-02	-7.8070447994e-01
9.5547723346e+01	1.6871875894e-01	-7.9378830098e-01
9.5388502746e+01	2.9227561789e-01	-8.0662221475e-01
9.5232135685e+01	4.1651437513e-01	-8.1920810526e-01
9.5078531950e+01	5.4118546804e-01	-8.3155567373e-01
9.4927604940e+01	6.6605039321e-01	-8.4366640510e-01
9.4779311964e+01	7.9093625792e-01	-8.5554757440e-01
9.4633657178e+01	9.1574160811e-01	-8.6719354347e-01
9.4490644493e+01	1.0403712927e+00	-8.7861052340e-01
9.4350302111e+01	1.1647602337e+00	-8.8979286342e-01
9.4212717932e+01	1.2889113582e+00	-9.0073968668e-01
9.4077979942e+01	1.4128336911e+00	-9.1144435971e-01
9.3946156808e+01	1.5365201889e+00	-9.2190135195e-01
9.3817270638e+01	1.6599132408e+00	-9.3211618775e-01
9.3691328417e+01	1.7829434898e+00	-9.4208297103e-01
9.3568338555e+01	1.9055482520e+00	-9.5180838604e-01
9.3448336338e+01	2.0276938126e+00	-9.6128305832e-01
9.3331359489e+01	2.1493544269e+00	-9.7051185281e-01
9.3217431176e+01	2.2704959722e+00	-9.7948640410e-01
9.3106536779e+01	2.3910500159e+00	-9.8820395940e-01
9.2998648050e+01	2.5109398077e+00	-9.9666801177e-01
9.2893742173e+01	2.6300987791e+00	-1.0048796376e+00
9.2791827967e+01	2.7484923861e+00	-1.0128270909e+00
9.2692915844e+01	2.8660933291e+00	-1.0205200266e+00
9.2596997206e+01	2.9828611279e+00	-1.0279598124e+00
9.2504043244e+01	3.0987400143e+00	-1.0351275522e+00
9.2414022843e+01	3.2136772859e+00	-1.0420502095e+00
9.2326916584e+01	3.3276329219e+00	-1.0487203069e+00
9.2242704352e+01	3.4405713849e+00	-1.0551330718e+00
9.2161328474e+01	3.5524323988e+00	-1.0613065534e+00
9.2082688747e+01	3.6631254244e+00	-1.0672492124e+00
9.2006663665e+01	3.7725547432e+00	-1.0729660027e+00
9.1933044153e+01	3.8805860579e+00	-1.0784811170e+00
9.1861637355e+01	3.9870991501e+00	-1.0838149091e+00
9.1792667220e+01	4.0922232716e+00	-1.0889560681e+00
9.1726642303e+01	4.1962683056e+00	-1.0938630114e+00
9.1663596160e+01	4.2992760755e+00	-1.0985242029e+00
9.1602696488e+01	4.4007708835e+00	-1.1030092505e+00
9.1543051912e+01	4.5002373557e+00	-1.1074141993e+00
9.1483308835e+01	4.5968354946e+00	-1.1118394734e+00
9.1421890735e+01	4.6895524137e+00	-1.1164104548e+00
9.1357653261e+01	4.7775444382e+00	-1.1212188536e+00
9.1290344464e+01	4.8602340362e+00	-1.1263187374e+00
9.1219930403e+01	4.9371853729e+00	-1.1317090920e+00
9.1146750283e+01	5.0083154119e+00	-1.1373510192e+00
9.1071378379e+01	5.0737910144e+00	-1.1432063501e+00
9.0994246322e+01	5.1336383107e+00	-1.1492593674e+00
9.0915534956e+01	5.1875474283e+00	-1.1554825323e+00
9.0835416877e+01	5.2352504201e+00	-1.1618475448e+00
9.0754218285e+01	5.2767008793e+00	-1.1683321305e+00
9.0672267691e+01	5.3118291431e+00	-1.1749086807e+00
9.0589575714e+01	5.3390879320e+00	-1.1812059327e+00
9.0506094087e+01	5.3561967086e+00	-1.1775530761e+00
9.0423017264e+01	5.3616970603e+00	-1.1728819484e+00
9.0342224879e+01	5.3549325854e+00	-1.1794515537e+00
9.0264803419e+01	5.3381504474e+00	-1.1857143901e+00
9.0191232012e+01	5.3145980008e+00	-1.1916661467e+00
9.0122107340e+01	5.2845779913e+00	-1.1972549822e+00
9.0057751834e+01	5.2487215992e+00	-1.2024318596e+00
8.9998191140e+01	5.2083453749e+00	-1.2072480895e+00
8.9943432749e+01	5.1645882402e+00	-1.2117810953e+00
1.1213961021e+02	9.7279180758e-01	3.9293865585e-04
1.1212396991e+02	9.9126842713e-01	3.9729154465e-04
1.1210557190e+02	1.0079826812e+00	4.0242355359e-04
1.1208447645e+02	1.0224250706e+00	4.0831925828e-04
1.1206095819e+02	1.0341964291e+00	4.1490271074e-04
1.1203543235e+02	1.0430529563e+00	4.3723025606e-04
1.1200829964e+02	1.0489179255e+00	4.5344651004e-04
1.1197992911e+02	1.0518380038e+00	4.6183497495e-04
1.1195063628e+02	1.0519739313e+00	4.7050413156e-04
1.1192063942e+02	1.0495272101e+00	1.1360848161e-03
1.1189010038e+02	1.0447310709e+00	1.1559662345e-03
1.1185910178e+02	1.0377889426e+00	1.1761592400e-03
1.1182769825e+02	1.0289098151e+00	1.1966268050e-03
1.1179590068e+02	1.0182479814e+00	1.2173606660e-03
1.1176370648e+02	1.0059584030e+00	1.2383612594e-03
1.1173109592e+02	9.9215319319e-01	1.3853058842e-03
1.1169804239e+02	9.7692953452e-01	1.5483307609e-03
1.1166451266e+02	9.6037638413e-01	1.5735323938e-03
1.1163047333e+02	9.4254710125e-01	1.6682776178e-03
1.1159588657e+02	9.2350431658e-01	1.7918968791e-03
1.1156071498e+02	9.0328842049e-01	1.8201934067e-03
1.1152492342e+02	8.8192802441e-01	1.8489907884e-03
1.1148847219e+02	8.5945875459e-01	1.8783200707e-03
1.1145132564e+02	8.3589717177e-01	1.9082091623e-03
1.1141344900e+02	8.1125679302e-01	2.1739015541e-03
1.1137480366e+02	7.8555597927e-01	2.2779472915e-03
1.1133535519e+02	7.5879984438e-01	2.3216298301e-03
1.1129506963e+02	7.3099197555e-01	2.4362183265e-03
1.1125390966e+02	7.0214019439e-01	2.4726630604e-03
1.1121184084e+02	6.7224404596e-01	2.5099080081e-03
1.1116882960e+02	6.4130108094e-01	2.5479820334e-03
1.1112483931e+02	6.0931267110e-01	2.6478049296e-03
1.1107983459e+02	5.7627595599e-01	2.8405707307e-03
1.1103378132e+02	5.4218556152e-01	2.8926522217e-03
1.1098664269e+02	5.0703939750e-01	3.4029293628e-03
1.1093838171e+02	4.7083411566e-01	3.4472824011e-03
1.1088896254e+02	4.3356410166e-01	3.4926894607e-03
1.1083834700e+02	3.9522657026e-01	3.5391845313e-03
1.1078649575e+02	3.5581938479e-01	3.5868026332e-03
1.1073336990e+02	3.1533929997e-01	3.6355783470e-03
1.1067892832e+02	2.7378581672e-01	4.3412674586e-03
1.1062312811e+02	2.3116035598e-01	4.4295862166e-03
1.1056592562e+02	1.8746510404e-01	4.7531156756e-03
1.1050727473e+02	1.4270549229e-01	4.7977055985e-03
1.1044712685e+02	9.6890212405e-02	4.8434193176e-03
1.1038543116e+02	5.0031186741e-02	4.9641553267e-03
1.1032213369e+02	2.1447413014e-03	5.0843254578e-03
1.1025717687e+02	-4.6747228870e-02	5.9805821637e-03
1.1019049928e+02	-9.6616792234e-02	6.0030602525e-03
1.1012203524e+02	-1.4742946851e-01	6.0261328159e-03
1.1005171396e+02	-1.9914153109e-01	6.0498233068e-03
1.0997945949e+02	-2.5170084018e-01	6.4547762954e-03
1.0990519067e+02	-3.0504484530e-01	6.6852365403e-03
1.0982882071e+02	-3.5909958583e-01	7.0118807894e-03
1.0975025823e+02	-4.1378085811e-01	6.9851893435e-03
1.0966940885e+02	-4.6899356967e-01	6.9577291756e-03
1.0958617559e+02	-5.2463396040e-01	7.3977561354e-03
1.0950046517e+02	-5.8059459152e-01	7.6270564875e-03
1.0941218688e+02	-6.3676566408e-01	7.6787461945e-03
1.0932126236e+02	-6.9304648990e-01	7.5558111092e-03
1.0922762309e+02	-7.4934568702e-01	7.4292319729e-03
1.0913121787e+02	-8.0559177376e-01	8.0390353385e-03
1.0903200875e+02	-8.6173115740e-01	7.9042683524e-03
1.0892997170e+02	-9.1772891523e-01	7.6142910728e-03
1.0882509171e+02	-9.7356483974e-01	7.3162787721e-03
1.0871735940e+02	-1.0292251229e+00	7.6895812404e-03
1.0860676493e+02	-1.0846932845e+00	7.1986807057e-03
1.0849330183e+02	-1.1399592231e+00	6.6332733732e-03
1.0837696510e+02	-1.1950127078e+00	6.6552909262e-03
1.0825772699e+02	-1.2497801198e+00	5.7633339312e-03
1.0813557759e+02	-1.3042426218e+00	4.7872387572e-03
1.0801059764e+02	-1.3585982977e+00	4.1015631581e-03
1.0788265248e+02	-1.4124350244e+00	2.6783891807e-03
1.0775134986e+02	-1.4647368359e+00	1.1359950551e-03
1.0761666752e+02	-1.5154579418e+00	-5.3189963078e-04
1.0747879306e+02	-1.5650299019e+00	-2.6057431572e-03
1.0733794251e+02	-1.6139430366e+00	-4.7562382594e-03
1.0719432229e+02	-1.6626385648e+00	-7.2454404373e-03
1.0704793886e+02	-1.7110457554e+00	-1.0024701114e-02
1.0689872102e+02	-1.7589097141e+00	-1.2846480824e-02
1.0674659372e+02	-1.8059545100e+00	-1.6256014430e-02
1.0659149308e+02	-1.8519235431e+00	-1.9452858686e-02
1.0643342365e+02	-1.8967137415e+00	-2.3318448830e-02
1.0627241487e+02	-1.9402644940e+00	-2.7250258620e-02
1.0610850225e+02	-1.9825168337e+00	-3.1262368803e-02
1.0594172360e+02	-2.0234025586e+00	-3.6320930899e-02
1.0577210466e+02	-2.0628095166e+00	-4.0804483522e-02
1.0559967075e+02	-2.1006117631e+00	-4.6945405524e-02
1.0542445163e+02	-2.1366802507e+00	-5.2345921230e-02
1.0524648289e+02	-2.1708810274e+00	-5.9543553667e-02
1.0506581118e+02	-2.2030672900e+00	-6.6205356796e-02
1.0488249025e+02	-2.2330857827e+00	-7.4471250973e-02
1.0469657933e+02	-2.2607799695e+00	-8.2556335588e-02
1.0450814362e+02	-2.2859994718e+00	-9.2027754310e-02
1.0431726119e+02	-2.3086689150e+00	-1.0155903826e-01
1.0412402103e+02	-2.3287549987e+00	-1.1242440574e-01
1.0392851853e+02	-2.3462307830e+00	-1.2347893599e-01
1.0373085528e+02	-2.3610724710e+00	-1.3568221194e-01
1.0353113414e+02	-2.3731836030e+00	-1.4829091427e-01
1.0332945614e+02	-2.3823869366e+00	-1.6175669156e-01
1.0312592699e+02	-2.3884994181e+00	-1.7609501799e-01
1.0292065752e+02	-2.3913380683e+00	-1.9068123180e-01
1.0271376901e+02	-2.3907673325e+00	-2.0651759551e-01
1.0250539559e+02	-2.3867083315e+00	-2.2254392080e-01
1.0229567693e+02	-2.3790897333e+00	-2.3932944776e-01
1.0208475752e+02	-2.3678451460e+00	-2.5692936084e-01
1.0187278911e+02	-2.3528966005e+00	-2.7443338365e-01
1.0165993271e+02	-2.3341341556e+00	-2.9297262772e-01
1.0144635383e+02	-2.3114471138e+00	-3.1134700129e-01
1.0123222155e+02	-2.2847292020e+00	-3.3005067324e-01
1.0101770885e+02	-2.2538788204e+00	-3.4858792322e-01
1.0080300513e+02	-2.2187960900e+00	-3.6712705676e-01
1.0058831380e+02	-2.1793837505e+00	-3.8527518109e-01
1.0037384068e+02	-2.1355505131e+00	-4.0309770818e-01
1.0015979310e+02	-2.0872115949e+00	-4.2054256439e-01
9.9946375020e+01	-2.0343066295e+00	-4.3771397226e-01
9.9733770623e+01	-1.9768805673e+00	-4.5466297020e-01
9.9522157503e+01	-1.9150208548e+00	-4.7154434641e-01
9.9311711979e+01	-1.8488235008e+00	-4.8833516742e-01
9.9102608462e+01	-1.7783927180e+00	-5.0512541998e-01
9.8895010818e+01	-1.7038440061e+00	-5.2185706674e-01
9.8689065147e+01	-1.6253068163e+00	-5.3854323872e-01
9.8484912740e+01	-1.5429181719e+00	-5.5515839399e-01
9.8282691283e+01	-1.4568214120e+00	-5.7165717121e-01
9.8082530649e+01	-1.3671686954e+00	-5.8800733940e-01
9.7884535644e+01	-1.2741347161e+00	-6.0419598619e-01
9.7688799840e+01	-1.1779045907e+00	-6.2017939717e-01
9.7495412498e+01	-1.0786669386e+00	-6.3595957598e-01
9.7304460395e+01	-9.7660776274e-01	-6.5150974218e-01
9.7116040123e+01	-8.7187121797e-01	-6.6683788957e-01
9.6930249477e+01	-7.6458281211e-01	-6.8192659066e-01
9.6747180736e+01	-6.5487084545e-01	-6.9678095168e-01
9.6566923151e+01	-5.4286333459e-01	-7.1139001828e-01
9.6389570724e+01	-4.2867859430e-01	-7.2575269936e-01
9.6215213637e+01	-3.1243406062e-01	-7.3986212943e-01
9.6043933488e+01	-1.9425124388e-01	-7.5371445928e-01
9.5875749233e+01	-7.4321675865e-02	-7.6730772229e-01
9.5710611871e+01	4.7082423292e-02	-7.8064534582e-01
9.5548467823e+01	1.6969025467e-01	-7.9372804151e-01
9.5389258819e+01	2.9323811642e-01	-8.0656092586e-01
9.5232902228e+01	4.1746855663e-01	-8.1914589101e-01
9.5079307883e+01	5.4213202988e-01	-8.3149262152e-01
9.4928389303e+01	6.6698998058e-01	-8.4360260822e-01
9.4780104406e+01	7.9186904190e-01	-8.5548306536e-01
9.4634457472e+01	9.1666766374e-01	-8.6712833967e-01
9.4491452428e+01	1.0412906901e+00	-8.7854464870e-01
9.4351117937e+01	1.1656726359e+00	-8.8972627503e-01
9.4213542122e+01	1.2898162119e+00	-9.0067233075e-01
9.4078812932e+01	1.4137304506e+00	-9.1137621435e-01
9.3946998774e+01	1.5374085269e+00	-9.2183236487e-01
9.3818121507e+01	1.6607930548e+00	-9.3204638061e-01
9.3692188110e+01	1.7838146832e+00	-9.4201232541e-01
9.3569207121e+01	1.9064105992e+00	-9.5173689450e-01
9.3449213997e+01	2.0285469041e+00	-9.6121075252e-01
9.3332246432e+01	2.1501978624e+00	-9.7043860840e-01
9.3218327415e+01	2.2713295220e+00	-9.7941233968e-01
9.3107442118e+01	2.3918736731e+00	-9.8812909689e-01
9.2999562291e+01	2.5117535729e+00	-9.9659234484e-01
9.2894665291e+01	2.6309024608e+00	-1.0048032921e+00
9.2792760103e+01	2.7492855900e+00	-1.0127499955e+00
9.2693857094e+01	2.8668756965e+00	-1.0204421199e+00
9.2597947487e+01	2.9836325015e+00	-1.0278811647e+00
9.2505002425e+01	3.0995002925e+00	-1.0350483857e+00
9.2414990844e+01	3.2144263023e+00	-1.0419702723e+00
9.2327893401e+01	3.3283704024e+00	-1.0486398798e+00
9.2243689924e+01	3.4412971246e+00	-1.0550520219e+00
9.2162322340e+01	3.5531467384e+00	-1.0612248064e+00
9.2083690378e+01	3.6638288341e+00	-1.0671668957e+00
9.2007672180e+01	3.7732482468e+00	-1.0728832667e+00
9.1934058303e+01	3.8812712954e+00	-1.0783978973e+00
9.1862656784e+01	3.9877765098e+00	-1.0837312167e+00
9.1793695095e+01	4.0928877442e+00	-1.0888714508e+00
9.1727681623e+01	4.1969147298e+00	-1.0937774868e+00
9.1664643782e+01	4.2999089562e+00	-1.0984380442e+00
9.1603747052e+01	4.4013988689e+00	-1.1029228224e+00
9.1544099125e+01	4.5008709128e+00	-1.1073273877e+00
9.1484341452e+01	4.5974925743e+00	-1.1117535770e+00
9.1422896555e+01	4.6902498204e+00	-1.1163265314e+00
9.1358623116e+01	4.7782910523e+00	-1.1211375687e+00
9.1291271470e+01	4.8610332293e+00	-1.1262401360e+00
9.1220808350e+01	4.9380381680e+00	-1.1316338570e+00
9.1147578012e+01	5.0092170302e+00	-1.1372796002e+00
9.1072155493e+01	5.0747366062e+00	-1.1431385254e+00
9.0994968243e+01	5.1346266828e+00	-1.1491953872e+00
9.0916194611e+01	5.1885784016e+00	-1.1554234345e+00
9.0836008492e+01	5.2363218873e+00	-1.1617938025e+00
9.0754738679e+01	5.2778086879e+00	-1.1682839959e+00
9.0672706478e+01	5.3129717349e+00	-1.1748670518e+00
9.0589895868e+01	5.3402692667e+00	-1.1811821725e+00
9.0506260359e+01	5.3574093107e+00	-1.1776570993e+00
9.0423008282e+01	5.3629209759e+00	-1.1728767819e+00
9.0342034454e+01	5.3561416298e+00	-1.1794610758e+00
9.0264484291e+01	5.3393320598e+00	-1.1857341764e+00
9.0190802769e+01	5.3157442124e+00	-1.1916948688e+00
9.0121562779e+01	5.2856741225e+00	-1.1972925103e+00
9.0057107942e+01	5.2497624900e+00	-1.2024770457e+00
8.9997463928e+01	5.2093298604e+00	-1.2073011287e+00
8.9942632149e+01	5.1655140321e+00	-1.2118402454e+00
1.1214081536e+02	9.7368162824e-01	3.9259757075e-04
1.1212504860e+02	9.9230793952e-01	3.9698560825e-04
1.1210650250e+02	1.0091566206e+00	4.0215887821e-04
1.1208523579e+02	1.0237164116e+00	4.0810240200e-04
1.1206153882e+02	1.0355773768e+00	4.1473583749e-04
1.1203583500e+02	1.0444958795e+00	4.3673729476e-04
1.1200853229e+02	1.0503977993e+00	4.5337354888e-04
1.1198000667e+02	1.0533340447e+00	4.6180785757e-04
1.1195057615e+02	1.0534707742e+00	4.7051776221e-04
1.1192045977e+02	1.0510144493e+00	1.1361925268e-03
1.1188981823e+02	1.0462023092e+00	1.1561407171e-03
1.1185873229e+02	1.0392407109e+00	1.1763906699e-03
1.1182725476e+02	1.0303407135e+00	1.1969065375e-03
1.1179539389e+02	1.0196577052e+00	1.2176817569e-03
1.1176314634e+02	1.0073477920e+00	1.2387172483e-03
1.1173048950e+02	9.9352301492e-01	1.3907612680e-03
1.1169739677e+02	9.7828132288e-01	1.5488050967e-03
1.1166383289e+02	9.6171132463e-01	1.5740325466e-03
1.1162976388e+02	9.4386650505e-01	1.6723448390e-03
1.1159515166e+02	9.2480971205e-01	1.7924767113e-03
1.1155995745e+02	9.0458081844e-01	1.8207916270e-03
1.1152414613e+02	8.8320864219e-01	1.8496050938e-03
1.1148767770e+02	8.6072877160e-01	1.8789484219e-03
1.1145051572e+02	8.3715740239e-01	1.9088501444e-03
1.1141262551e+02	8.1250820377e-01	2.1815295234e-03
1.1137396827e+02	7.8679947159e-01	2.2786632888e-03
1.1133450906e+02	7.6003605559e-01	2.3243564286e-03
1.1129421401e+02	7.3222163962e-01	2.4369653951e-03
1.1125304572e+02	7.0336402400e-01	2.4734177791e-03
1.1121096940e+02	6.7346254538e-01	2.5106696562e-03
1.1116795153e+02	6.4251481114e-01	2.5487498479e-03
1.1112395547e+02	6.1052220897e-01	2.6532659497e-03
1.1107894561e+02	5.7748172237e-01	2.8413661102e-03
1.1103288785e+02	5.4338800372e-01	2.9037327469e-03
1.1098574540e+02	5.0823899372e-01	3.4037462482e-03
1.1093748114e+02	4.7203124301e-01	3.4481026684e-03
1.1088805920e+02	4.3475914407e-01	3.4935126356e-03
1.1083744146e+02	3.9641994366e-01	3.5400101080e-03
1.1078558849e+02	3.5701145153e-01	3.5876301769e-03
1.1073246139e+02	3.1653042358e-01	3.6364074254e-03
1.1067801910e+02	2.7497638994e-01	4.3420182583e-03
1.1062221865e+02	2.3235075316e-01	4.4366919391e-03
1.1056501644e+02	1.8865570845e-01	4.7538045668e-03
1.1050636636e+02	1.4389671464e-01	4.7983942400e-03
1.1044621984e+02	9.8082473732e-02	4.8441072974e-03
1.1038452610e+02	5.1224930579e-02	4.9664611251e-03
1.1032123122e+02	3.3404417138e-03	5.1023684504e-03
1.1025627768e+02	-4.5549059031e-02	5.9808856119e-03
1.1018960411e+02	-9.5415609294e-02	6.0033625256e-03
1.1012114494e+02	-1.4622468266e-01	6.0264336401e-03
1.1005082943e+02	-1.9793250075e-01	6.0501223777e-03
1.0997858172e+02	-2.5048689024e-01	6.4628480092e-03
1.0990432077e+02	-3.0382524716e-01	6.6945578025e-03
1.0982795986e+02	-3.5787358075e-01	7.0115862352e-03
1.0974940768e+02	-4.1254768255e-01	6.9848980809e-03
1.0966856993e+02	-4.6775245072e-01	6.9574416515e-03
1.0958534959e+02	-5.2338420500e-01	7.4090132143e-03
1.0949965338e+02	-5.7933556301e-01	7.6309421275e-03
1.0941139037e+02	-6.3549691408e-01	7.6776551871e-03
1.0932048207e+02	-6.9176769897e-01	7.5547411409e-03
1.0922685958e+02	-7.4805680481e-01	7.4281837891e-03
1.0913047151e+02	-8.0429289035e-01	8.0370603830e-03
1.0903127951e+02	-8.6042258659e-01	7.9021570936e-03
1.0892925938e+02	-9.1641105201e-01	7.6122259820e-03
1.0882439594e+02	-9.7223816619e-01	7.3142587406e-03
1.0871667982e+02	-1.0278900833e+00	7.6874329831e-03
1.0860610119e+02	-1.0833503032e+00	7.1952894169e-03
1.0849265346e+02	-1.1386087543e+00	6.6299551874e-03
1.0837633194e+02	-1.1936550386e+00	6.6502326697e-03
1.0825710964e+02	-1.2484151881e+00	5.7582480947e-03
1.0813497426e+02	-1.3028714384e+00	4.7822592512e-03
1.0801000660e+02	-1.3572217724e+00	4.0946882816e-03
1.0788208348e+02	-1.4110492402e+00	2.6714553635e-03
1.0775080951e+02	-1.4633396344e+00	1.1293894991e-03
1.0761615100e+02	-1.5140517536e+00	-5.3964914274e-04
1.0747829488e+02	-1.5636171140e+00	-2.6137042424e-03
1.0733745677e+02	-1.6125259237e+00	-4.7640196766e-03
1.0719384626e+02	-1.6612181614e+00	-7.2539011689e-03
1.0704747454e+02	-1.7096214800e+00	-1.0033555023e-02
1.0689827055e+02	-1.7574809964e+00	-1.2857363706e-02
1.0674615936e+02	-1.8045208135e+00	-1.6265515271e-02
1.0659107602e+02	-1.8504847202e+00	-1.9462016534e-02
1.0643302386e+02	-1.8952700229e+00	-2.3331722471e-02
1.0627203232e+02	-1.9388161122e+00	-2.7259753800e-02
1.0610813688e+02	-1.9810640218e+00	-3.1275554505e-02
1.0594137565e+02	-2.0219454783e+00	-3.6331208833e-02
1.0577177464e+02	-2.0613482679e+00	-4.0816625881e-02
1.0559935922e+02	-2.0991464627e+00	-4.6957168510e-02
1.0542415913e+02	-2.1352110326e+00	-5.2356541751e-02
1.0524621004e+02	-2.1694080359e+00	-5.9556779640e-02
1.0506555863e+02	-2.2015906801e+00	-6.6214938623e-02
1.0488225871e+02	-2.2316057337e+00	-7.4484575647e-02
1.0469636950e+02	-2.2592966866e+00	-8.2565634547e-02
1.0450795595e+02	-2.2845132238e+00	-9.2039848660e-02
1.0431709544e+02	-2.3071800621e+00	-1.0156787823e-01
1.0412387694e+02	-2.3272638947e+00	-1.1243488871e-01
1.0392839579e+02	-2.3447377700e+00	-1.2348801637e-01
1.0373075371e+02	-2.3595778685e+00	-1.3569075636e-01
1.0353105448e+02	-2.3716876720e+00	-1.4829852947e-01
1.0332939934e+02	-2.3808899637e+00	-1.6176279441e-01
1.0312589398e+02	-2.3870017317e+00	-1.7609978858e-01
1.0292064917e+02	-2.3898400413e+00	-1.9068446124e-01
1.0271378562e+02	-2.3892693744e+00	-2.0651894324e-01
1.0250543733e+02	-2.3852108628e+00	-2.2254334512e-01
1.0229574396e+02	-2.3775931834e+00	-2.3932696775e-01
1.0208485000e+02	-2.3663499530e+00	-2.5692438230e-01
1.0187290746e+02	-2.3514032330e+00	-2.7442606943e-01
1.0166007749e+02	-2.3326431183e+00	-2.9296329284e-01
1.0144652559e+02	-2.3099589422e+00	-3.1133498343e-01
1.0123242081e+02	-2.2832444634e+00	-3.3003639473e-01
1.0101793615e+02	-2.2523981155e+00	-3.4857118848e-01
1.0080326106e+02	-2.2173200626e+00	-3.6710823421e-01
1.0058859892e+02	-2.1779130838e+00	-3.8525388155e-01
1.0037415556e+02	-2.1340859293e+00	-4.0307454284e-01
1.0016013828e+02	-2.0857538560e+00	-4.2051715088e-01
9.9946750633e+01	-2.0328564331e+00	-4.3768642915e-01
9.9734176177e+01	-1.9754384578e+00	-4.5463306383e-01
9.9522592497e+01	-1.9135873503e+00	-4.7151206191e-01
9.9312175902e+01	-1.8473990957e+00	-4.8830028689e-01
9.9103100796e+01	-1.7769778817e+00	-5.0508814451e-01
9.8895530959e+01	-1.7024391545e+00	-5.2181714414e-01
9.8689612454e+01	-1.6239123238e+00	-5.3850087869e-01
9.8485486570e+01	-1.5415343826e+00	-5.5511368888e-01
9.8283290995e+01	-1.4554486412e+00	-5.7161014514e-01
9.8083155511e+01	-1.3658071883e+00	-5.8795814592e-01
9.7885184791e+01	-1.2727846190e+00	-6.0414466123e-01
9.7689472415e+01	-1.1765660105e+00	-6.2012614830e-01
9.7496107657e+01	-1.0773399462e+00	-6.3590437627e-01
9.7305177442e+01	-9.7529246859e-01	-6.5145278182e-01
9.7116778671e+01	-8.7056787573e-01	-6.6677907642e-01
9.6931009148e+01	-7.6329166777e-01	-6.8186603898e-01
9.6747961149e+01	-6.5359213131e-01	-6.9671862596e-01
9.6567723991e+01	-5.4159731326e-01	-7.1132594919e-01
9.6390391743e+01	-4.2742556528e-01	-7.2568687470e-01
9.6216054581e+01	-3.1119431560e-01	-7.3979456576e-01
9.6044793981e+01	-1.9302498731e-01	-7.5364519241e-01
9.5876628014e+01	-7.3108457909e-02	-7.6723682862e-01
9.5711507536e+01	4.8283230887e-02	-7.8057296760e-01
9.5549379025e+01	1.7087931552e-01	-7.9365428592e-01
9.5390184214e+01	2.9441616516e-01	-8.0648591035e-01
9.5233840437e+01	4.1863642575e-01	-8.1906974292e-01
9.5080257584e+01	5.4329057294e-01	-8.3141544784e-01
9.4929349324e+01	6.6813998724e-01	-8.4352452272e-01
9.4781074314e+01	7.9301072157e-01	-8.5540410861e-01
9.4635436991e+01	9.1780110824e-01	-8.6704853260e-01
9.4492441298e+01	1.0424159852e+00	-8.7846401346e-01
9.4352116466e+01	1.1667893693e+00	-8.8964477332e-01
9.4214550889e+01	1.2909237063e+00	-9.0058988963e-01
9.4079832469e+01	1.4148280382e+00	-9.1129280703e-01
9.3948029296e+01	1.5384958070e+00	-9.2174796041e-01
9.3819162926e+01	1.6618699018e+00	-9.3196093939e-01
9.3693240331e+01	1.7848809793e+00	-9.4192585795e-01
9.3570270202e+01	1.9074660679e+00	-9.5164939170e-01
9.3450288206e+01	2.0295910443e+00	-9.6112225312e-01
9.3333332004e+01	2.1512301843e+00	-9.7034896020e-01
9.3219424366e+01	2.2723497440e+00	-9.7932168785e-01
9.3108550207e+01	2.3928817870e+00	-9.8803746827e-01
9.3000681274e+01	2.5127495798e+00	-9.9649973166e-01
9.2895795139e+01	2.6318861258e+00	-1.0047098484e+00
9.2793900990e+01	2.7502564308e+00	-1.0126556340e+00
9.2695009136e+01	2.8678332739e+00	-1.0203467654e+00
9.2599110581e+01	2.9845766231e+00	-1.0277849034e+00
9.2506176412e+01	3.1004308339e+00	-1.0349514894e+00
9.2416175626e+01	3.2153430599e+00	-1.0418724327e+00
9.2329088976e+01	3.3292730407e+00	-1.0485414406e+00
9.2244896214e+01	3.4421853927e+00	-1.0549528206e+00
9.2163538781e+01	3.5540210534e+00	-1.0611247517e+00
9.2084916323e+01	3.6646897714e+00	-1.0670661438e+00
9.2008906551e+01	3.7740970596e+00	-1.0727820016e+00
9.1935299570e+01	3.8821099908e+00	-1.0782960403e+00
9.1863904512e+01	3.9886055633e+00	-1.0836287811e+00
9.1794953161e+01	4.0937010244e+00	-1.0887678830e+00
9.1728953697e+01	4.1977059197e+00	-1.0936728087e+00
9.1665926018e+01	4.3006835696e+00	-1.0983325900e+00
9.1605032888e+01	4.4021674907e+00	-1.1028170384e+00
9.1545380861e+01	4.5016463541e+00	-1.1072211344e+00
9.1485605321e+01	4.5982968061e+00	-1.1116484439e+00
9.1424127627e+01	4.6911034103e+00	-1.1162238130e+00