TITLE="mesh"
VARIABLES="X" "Y" "Z"
ZONE N=46454, E=22752, DATAPACKING=POINT, ZONETYPE=FEBRICK
1.1213862558e+02	9.7206478908e-01	4.6910014407e+00
1.1212308859e+02	9.9041911811e-01	4.6912509920e+00
1.1210481157e+02	1.0070235424e+00	4.6915452187e+00
1.1208385605e+02	1.0213700061e+00	4.6918832094e+00
1.1206048380e+02	1.0330681533e+00	4.6922607886e+00
1.1203510338e+02	1.0418740461e+00	4.6926868553e+00
1.1200810956e+02	1.0477088263e+00	4.6931483169e+00
1.1197986575e+02	1.0506156964e+00	4.6936316096e+00
1.1195068541e+02	1.0507509694e+00	4.6941313875e+00
1.1192078621e+02	1.0483120951e+00	4.6953283001e+00
1.1189033092e+02	1.0435290292e+00	4.6965663883e+00
1.1185940367e+02	1.0366028088e+00	4.6978244347e+00
1.1182806060e+02	1.0277407324e+00	4.6991000672e+00
1.1179631474e+02	1.0170961989e+00	4.7003926827e+00
1.1176416413e+02	1.0048232342e+00	4.7017022839e+00
1.1173159138e+02	9.9103401154e-01	4.7031510391e+00
1.1169856988e+02	9.7582508635e-01	4.7047789782e+00
1.1166506805e+02	9.5928570115e-01	4.7064301537e+00
1.1163105298e+02	9.4146911221e-01	4.7081731901e+00
1.1159648701e+02	9.2243777253e-01	4.7100531974e+00
1.1156133391e+02	9.0223249579e-01	4.7119647724e+00
1.1152555848e+02	8.8088172444e-01	4.7139103279e+00
1.1148912130e+02	8.5842111563e-01	4.7158919476e+00
1.1145198737e+02	8.3486752855e-01	4.7179114836e+00
1.1141412181e+02	8.1023435588e-01	4.7202002973e+00
1.1137548620e+02	7.8454001164e-01	4.7226324911e+00
1.1133604650e+02	7.5778982561e-01	4.7251224328e+00
1.1129576869e+02	7.2998730598e-01	4.7277537646e+00
1.1125461553e+02	7.0114029169e-01	4.7304415438e+00
1.1121255284e+02	6.7124849819e-01	4.7331883918e+00
1.1116954701e+02	6.4030942974e-01	4.7359964403e+00
1.1112556143e+02	6.0832444513e-01	4.7389250712e+00
1.1108056091e+02	5.7529081143e-01	4.7421033473e+00
1.1103451131e+02	5.4120313290e-01	4.7453562437e+00
1.1098737580e+02	5.0605929412e-01	4.7492305740e+00
1.1093911751e+02	4.6985602940e-01	4.7531936016e+00
1.1088970060e+02	4.3258771887e-01	4.7572508485e+00
1.1083908686e+02	3.9425155109e-01	4.7614053542e+00
1.1078723701e+02	3.5484543320e-01	4.7656602429e+00
1.1073411217e+02	3.1436611893e-01	4.7700186044e+00
1.1067967118e+02	2.7281308536e-01	4.7752293016e+00
1.1062387116e+02	2.3018776845e-01	4.7806574499e+00
1.1056666845e+02	1.8649234721e-01	4.7865833447e+00
1.1050801690e+02	1.4173223057e-01	4.7926558363e+00
1.1044786790e+02	9.5916101818e-02	4.7988814176e+00
1.1038617062e+02	4.9055864902e-02	4.8053377449e+00
1.1032287103e+02	1.1678208870e-03	4.8120470564e+00
1.1025791154e+02	-4.7726166875e-02	4.8201284451e+00
1.1019123065e+02	-9.7598192027e-02	4.8284160862e+00
1.1012276265e+02	-1.4841381197e-01	4.8369229823e+00
1.1005243665e+02	-2.0012934243e-01	4.8456577895e+00
1.0998017665e+02	-2.5269267095e-01	4.8550040766e+00
1.0990590141e+02	-3.0604129082e-01	4.8650432933e+00
1.0982952405e+02	-3.6010126600e-01	4.8759959969e+00
1.0975095315e+02	-4.1478839676e-01	4.8872576524e+00
1.0967009427e+02	-4.7000759829e-01	4.8988437687e+00
1.0958685045e+02	-5.2565504524e-01	4.9112270792e+00
1.0950112842e+02	-5.8162325276e-01	4.9247900243e+00
1.0941283765e+02	-6.3780226804e-01	4.9391505848e+00
1.0932189988e+02	-6.9409129759e-01	4.9539372879e+00
1.0922824689e+02	-7.5039873957e-01	4.9691623116e+00
1.0913182767e+02	-8.0665299758e-01	4.9863735065e+00
1.0903260456e+02	-8.6280029609e-01	5.0045046569e+00
1.0893055368e+02	-9.1880564609e-01	5.0231866248e+00
1.0882566017e+02	-9.7464876888e-01	5.0423861284e+00
1.0871791463e+02	-1.0303158873e+00	5.0642120889e+00
1.0860730723e+02	-1.0857905375e+00	5.0868843957e+00
1.0849383157e+02	-1.1410625936e+00	5.1101415326e+00
1.0837748241e+02	-1.1961219613e+00	5.1350500070e+00
1.0825823138e+02	-1.2508953069e+00	5.1622031123e+00
1.0813607053e+02	-1.3053629167e+00	5.1900986528e+00
1.0801108054e+02	-1.3597229570e+00	5.2191112942e+00
1.0788311736e+02	-1.4135672485e+00	5.2510409527e+00
1.0775179135e+02	-1.4658783883e+00	5.2840286561e+00
1.0761708952e+02	-1.5166068366e+00	5.3182693449e+00
1.0747920009e+02	-1.5661841889e+00	5.3550546326e+00
1.0733833937e+02	-1.6151008573e+00	5.3929213042e+00
1.0719471123e+02	-1.6637990737e+00	5.4320242511e+00
1.0704831823e+02	-1.7122094279e+00	5.4730359660e+00
1.0689908906e+02	-1.7600770162e+00	5.5149826927e+00
1.0674694861e+02	-1.8071258799e+00	5.5585003299e+00
1.0659183383e+02	-1.8530991014e+00	5.6036591300e+00
1.0643375029e+02	-1.8978932996e+00	5.6497649949e+00
1.0627272742e+02	-1.9414478621e+00	5.6979019818e+00
1.0610880076e+02	-1.9837038213e+00	5.7471298773e+00
1.0594200789e+02	-2.0245930337e+00	5.7979123496e+00
1.0577237428e+02	-2.0640033973e+00	5.8504367843e+00
1.0559992527e+02	-2.1018089543e+00	5.9041619441e+00
1.0542469060e+02	-2.1378806428e+00	5.9601643165e+00
1.0524670582e+02	-2.1720845023e+00	6.0173357269e+00
1.0506601751e+02	-2.2042737212e+00	6.0769484684e+00
1.0488267942e+02	-2.2342950238e+00	6.1380271286e+00
1.0469675076e+02	-2.2619918528e+00	6.2012793197e+00
1.0450829695e+02	-2.2872137778e+00	6.2663714363e+00
1.0431739661e+02	-2.3098853492e+00	6.3333016021e+00
1.0412413876e+02	-2.3299732721e+00	6.4023178234e+00
1.0392861882e+02	-2.3474506161e+00	6.4729489428e+00
1.0373093827e+02	-2.3622936029e+00	6.5457177122e+00
1.0353119922e+02	-2.3744058202e+00	6.6199761275e+00
1.0332950255e+02	-2.3836100050e+00	6.6962667780e+00
1.0312595396e+02	-2.3897230695e+00	6.7740050603e+00
1.0292066434e+02	-2.3925619979e+00	6.8535631405e+00
1.0271375544e+02	-2.3919912059e+00	6.9345695890e+00
1.0250536149e+02	-2.3879318049e+00	7.0170920101e+00
1.0229562217e+02	-2.3803124562e+00	7.1010725468e+00
1.0208468197e+02	-2.3690667602e+00	7.1862070288e+00
1.0187269241e+02	-2.3541167232e+00	7.2727969407e+00
1.0165981442e+02	-2.3353523745e+00	7.3602162925e+00
1.0144621350e+02	-2.3126629912e+00	7.4489210332e+00
1.0123205875e+02	-2.2859422747e+00	7.5381573568e+00
1.0101752313e+02	-2.2550885974e+00	7.6284923826e+00
1.0080279603e+02	-2.2200020454e+00	7.7191468039e+00
1.0058808085e+02	-2.1805853261e+00	7.8103516357e+00
1.0037358342e+02	-2.1367471186e+00	7.9017222434e+00
1.0015951107e+02	-2.0884026081e+00	7.9931790934e+00
9.9946068134e+01	-2.0354914802e+00	8.0845295638e+00
9.9733439274e+01	-1.9780588109e+00	8.1756148489e+00
9.9521802101e+01	-1.9161920677e+00	8.2662544543e+00
9.9311332941e+01	-1.8499872793e+00	8.3563929715e+00
9.9102206212e+01	-1.7795486785e+00	8.4458793170e+00
9.8894585849e+01	-1.7049918088e+00	8.5347116068e+00
9.8688617982e+01	-1.6264461554e+00	8.6227922393e+00
9.8484443904e+01	-1.5440487661e+00	8.7100965969e+00
9.8282201301e+01	-1.4579430039e+00	8.7965562349e+00
9.8082020119e+01	-1.3682810845e+00	8.8821338594e+00
9.7884005273e+01	-1.2752377829e+00	8.9667791913e+00
9.7688250327e+01	-1.1789982478e+00	9.0504689473e+00
9.7494844535e+01	-1.0797511283e+00	9.1331484931e+00
9.7303874549e+01	-9.7768239458e-01	9.2147878916e+00
9.7115436709e+01	-8.7293608476e-01	9.2953262723e+00
9.6929628804e+01	-7.6563771288e-01	9.3747255530e+00
9.6746543117e+01	-6.5591559040e-01	9.4529306419e+00
9.6566268843e+01	-5.4389770917e-01	9.5299028232e+00
9.6388899929e+01	-4.2970235380e-01	9.6055925341e+00
9.6214526562e+01	-3.1344696673e-01	9.6799564372e+00
9.6043230440e+01	-1.9525312953e-01	9.7529550573e+00
9.5875031244e+01	-7.5312908613e-02	9.8245743105e+00
9.5709880088e+01	4.6101330153e-02	9.8948320983e+00
9.5547723346e+01	1.6871875895e-01	9.9637490762e+00
9.5388502746e+01	2.9227561789e-01	1.0031347580e+01
9.5232135685e+01	4.1651437514e-01	1.0097662345e+01
9.5078531950e+01	5.4118546805e-01	1.0162730581e+01
9.4927604940e+01	6.6605039322e-01	1.0226589177e+01
9.4779311964e+01	7.9093625792e-01	1.0289256782e+01
9.4633657178e+01	9.1574160812e-01	1.0350731497e+01
9.4490644493e+01	1.0403712927e+00	1.0411012112e+01
9.4350302111e+01	1.1647602337e+00	1.0470088136e+01
9.4212717932e+01	1.2889113582e+00	1.0527920737e+01
9.4077979942e+01	1.4128336911e+00	1.0584473353e+01
9.3946156808e+01	1.5365201889e+00	1.0639716675e+01
9.3817270638e+01	1.6599132408e+00	1.0693641248e+01
9.3691328417e+01	1.7829434898e+00	1.0746244549e+01
9.3568338555e+01	1.9055482520e+00	1.0797524360e+01
9.3448336338e+01	2.0276938126e+00	1.0847466207e+01
9.3331359489e+01	2.1493544269e+00	1.0896053550e+01
9.3217431176e+01	2.2704959722e+00	1.0943279277e+01
9.3106536779e+01	2.3910500159e+00	1.0989150523e+01
9.2998648050e+01	2.5109398076e+00	1.1033679474e+01
9.2893742173e+01	2.6300987791e+00	1.1076879521e+01
9.2791827967e+01	2.7484923860e+00	1.1118748840e+01
9.2692915844e+01	2.8660933291e+00	1.1159282394e+01
9.2596997206e+01	2.9828611279e+00	1.1198486606e+01
9.2504043244e+01	3.0987400143e+00	1.1236377650e+01
9.2414022843e+01	3.2136772859e+00	1.1272970248e+01
9.2326916584e+01	3.3276329219e+00	1.1308274198e+01
9.2242704352e+01	3.4405713849e+00	1.1342301019e+01
9.2161328474e+01	3.5524323988e+00	1.1375078273e+01
9.2082688747e+01	3.6631254244e+00	1.1406651797e+01
9.2006663665e+01	3.7725547432e+00	1.1437077169e+01
9.1933044153e+01	3.8805860580e+00	1.1466447223e+01
9.1861637356e+01	3.9870991500e+00	1.1494848226e+01
9.1792667220e+01	4.0922232715e+00	1.1522184919e+01
9.1726642302e+01	4.1962683058e+00	1.1548237608e+01
9.1663596160e+01	4.2992760757e+00	1.1572993976e+01
9.1602696488e+01	4.4007708837e+00	1.1596818007e+01
9.1543051912e+01	4.5002373562e+00	1.1620100699e+01
9.1483308835e+01	4.5968354951e+00	1.1643437872e+01
9.1421890735e+01	4.6895524139e+00	1.1667525212e+01
9.1357653261e+01	4.7775444384e+00	1.1692874017e+01
9.1290344463e+01	4.8602340364e+00	1.1719609752e+01
9.1219930403e+01	4.9371853728e+00	1.1747762545e+01
9.1146750283e+01	5.0083154119e+00	1.1777195708e+01
9.1071378379e+01	5.0737910145e+00	1.1807667234e+01
9.0994246322e+01	5.1336383109e+00	1.1839001646e+01
9.0915534956e+01	5.1875474284e+00	1.1871132928e+01
9.0835416877e+01	5.2352504201e+00	1.1903998131e+01
9.0754218285e+01	5.2767008794e+00	1.1937463863e+01
9.0672267689e+01	5.3118291437e+00	1.1971396083e+01
9.0589575712e+01	5.3390879325e+00	1.2006209886e+01
9.0506094086e+01	5.3561967087e+00	1.2051602208e+01
9.0423017263e+01	5.3616970603e+00	1.2098131545e+01
9.0342224882e+01	5.3549325858e+00	1.2132604164e+01
9.0264803418e+01	5.3381504471e+00	1.2165896884e+01
9.0191232011e+01	5.3145980004e+00	1.2197723173e+01
9.0122107341e+01	5.2845779916e+00	1.2227817525e+01
9.0057751835e+01	5.2487215995e+00	1.2256021624e+01
8.9998191141e+01	5.2083453753e+00	1.2282296861e+01
8.9943432748e+01	5.1645882398e+00	1.2306609324e+01
1.1213961023e+02	9.7279178464e-01	4.6909853580e+00
1.1212396991e+02	9.9126843039e-01	4.6912365669e+00
1.1210557189e+02	1.0079826860e+00	4.6915327391e+00
1.1208447646e+02	1.0224250638e+00	4.6918729844e+00
1.1206095820e+02	1.0341964221e+00	4.6922529204e+00
1.1203543236e+02	1.0430529521e+00	4.6926810308e+00
1.1200829965e+02	1.0489179227e+00	4.6931448672e+00
1.1197992913e+02	1.0518380029e+00	4.6936303275e+00
1.1195063629e+02	1.0519739319e+00	4.6941320321e+00
1.1192063943e+02	1.0495272118e+00	4.6953337957e+00
1.1189010039e+02	1.0447310729e+00	4.6965752906e+00
1.1185910179e+02	1.0377889451e+00	4.6978362425e+00
1.1182769826e+02	1.0289098171e+00	4.6991143393e+00
1.1179590068e+02	1.0182479836e+00	4.7004090649e+00
1.1176370648e+02	1.0059584045e+00	4.7017204466e+00
1.1173109592e+02	9.9215319482e-01	4.7031748899e+00
1.1169804239e+02	9.7692953553e-01	4.7048043915e+00
1.1166451266e+02	9.6037638519e-01	4.7064569501e+00
1.1163047333e+02	9.4254710236e-01	4.7082040865e+00
1.1159588657e+02	9.2350431724e-01	4.7100852185e+00
1.1156071498e+02	9.0328842117e-01	4.7119978090e+00
1.1152492342e+02	8.8192802511e-01	4.7139442527e+00
1.1148847219e+02	8.5945875501e-01	4.7159266481e+00
1.1145132564e+02	8.3589717219e-01	4.7179468815e+00
1.1141344900e+02	8.1125679345e-01	4.7202420097e+00
1.1137480366e+02	7.8555597953e-01	4.7226747988e+00
1.1133535519e+02	7.5879984464e-01	4.7251669426e+00
1.1129506963e+02	7.3099197581e-01	4.7277987879e+00
1.1125390966e+02	7.0214019455e-01	4.7304870281e+00
1.1121184084e+02	6.7224404613e-01	4.7332342937e+00
1.1116882960e+02	6.4130108110e-01	4.7360427138e+00
1.1112483931e+02	6.0931267121e-01	4.7389755009e+00
1.1107983459e+02	5.7627595610e-01	4.7421540725e+00
1.1103378132e+02	5.4218556163e-01	4.7454156489e+00
1.1098664269e+02	5.0703939758e-01	4.7492902136e+00
1.1093838171e+02	4.7083411573e-01	4.7532534881e+00
1.1088896254e+02	4.3356410174e-01	4.7573109473e+00
1.1083834700e+02	3.9522657031e-01	4.7614656283e+00
1.1078649575e+02	3.5581938485e-01	4.7657206606e+00
1.1073336990e+02	3.1533930002e-01	4.7700791342e+00
1.1067892832e+02	2.7378581676e-01	4.7753007199e+00
1.1062312811e+02	2.3116035603e-01	4.7807341142e+00
1.1056592562e+02	1.8746510409e-01	4.7866599963e+00
1.1050727473e+02	1.4270549233e-01	4.7927324601e+00
1.1044712685e+02	9.6890212447e-02	4.7989579678e+00
1.1038543116e+02	5.0031186784e-02	4.8054154956e+00
1.1032213369e+02	2.1447413452e-03	4.8121388244e+00
1.1025717687e+02	-4.6747228827e-02	4.8202198522e+00
1.1019049928e+02	-9.6616792191e-02	4.8285071393e+00
1.1012203524e+02	-1.4742946846e-01	4.8370135991e+00
1.1005171396e+02	-1.9914153105e-01	4.8457478781e+00
1.0997945949e+02	-2.5170084013e-01	4.8550998902e+00
1.0990519067e+02	-3.0504484525e-01	4.8651458573e+00
1.0982882071e+02	-3.5909958579e-01	4.8760975269e+00
1.0975025823e+02	-4.1378085806e-01	4.8873580480e+00
1.0966940885e+02	-4.6899356963e-01	4.8989428756e+00
1.0958617559e+02	-5.2463396036e-01	4.9113341774e+00
1.0950046517e+02	-5.8059459150e-01	4.9248991935e+00
1.0941218688e+02	-6.3676566406e-01	4.9392577877e+00
1.0932126236e+02	-6.9304648990e-01	4.9540424236e+00
1.0922762309e+02	-7.4934568702e-01	4.9692653068e+00
1.0913121787e+02	-8.0559177378e-01	4.9864851907e+00
1.0903200875e+02	-8.6173115742e-01	5.0046157760e+00
1.0892997170e+02	-9.1772891525e-01	5.0232953141e+00
1.0882509171e+02	-9.7356483976e-01	5.0424924462e+00
1.0871735940e+02	-1.0292251229e+00	5.0643285918e+00
1.0860676493e+02	-1.0846932845e+00	5.0869983578e+00
1.0849330183e+02	-1.1399592231e+00	5.1102530381e+00
1.0837696510e+02	-1.1950127078e+00	5.1351706999e+00
1.0825772699e+02	-1.2497801199e+00	5.1623218569e+00
1.0813557759e+02	-1.3042426218e+00	5.1902149149e+00
1.0801059764e+02	-1.3585982976e+00	5.2192353793e+00
1.0788265248e+02	-1.4124350242e+00	5.2511620967e+00
1.0775134986e+02	-1.4647368360e+00	5.2841440652e+00
1.0761666752e+02	-1.5154579418e+00	5.3183858679e+00
1.0747879306e+02	-1.5650299020e+00	5.3551691608e+00
1.0733794251e+02	-1.6139430367e+00	5.3930332477e+00
1.0719432229e+02	-1.6626385647e+00	5.4321371715e+00
1.0704793886e+02	-1.7110457553e+00	5.4731484187e+00
1.0689872102e+02	-1.7589097141e+00	5.5150921070e+00
1.0674659372e+02	-1.8059545100e+00	5.5586099772e+00
1.0659149308e+02	-1.8519235431e+00	5.6037648191e+00
1.0643342365e+02	-1.8967137415e+00	5.6498671304e+00
1.0627241487e+02	-1.9402644940e+00	5.6980028166e+00
1.0610850225e+02	-1.9825168337e+00	5.7472266288e+00
1.0594172360e+02	-2.0234025586e+00	5.7980074405e+00
1.0577210466e+02	-2.0628095166e+00	5.8505278941e+00
1.0559967075e+02	-2.1006117631e+00	5.9042501848e+00
1.0542445163e+02	-2.1366802507e+00	5.9602491127e+00
1.0524648289e+02	-2.1708810274e+00	6.0174161391e+00
1.0506581118e+02	-2.2030672900e+00	6.0770259214e+00
1.0488249025e+02	-2.2330857827e+00	6.1380989724e+00
1.0469657933e+02	-2.2607799695e+00	6.2013477865e+00
1.0450814362e+02	-2.2859994718e+00	6.2664337514e+00
1.0431726119e+02	-2.3086689150e+00	6.3333597248e+00
1.0412402103e+02	-2.3287549987e+00	6.4023697176e+00
1.0392851853e+02	-2.3462307830e+00	6.4729960826e+00
1.0373085528e+02	-2.3610724710e+00	6.5457585648e+00
1.0353113414e+02	-2.3731836030e+00	6.6200113802e+00
1.0332945614e+02	-2.3823869366e+00	6.6962950308e+00
1.0312592699e+02	-2.3884994181e+00	6.7740265058e+00
1.0292065752e+02	-2.3913380683e+00	6.8535768107e+00
1.0271376901e+02	-2.3907673325e+00	6.9345754961e+00
1.0250539559e+02	-2.3867083315e+00	7.0170897910e+00
1.0229567693e+02	-2.3790897333e+00	7.1010619365e+00
1.0208475752e+02	-2.3678451460e+00	7.1861879974e+00
1.0187278911e+02	-2.3528966005e+00	7.2727688825e+00
1.0165993271e+02	-2.3341341556e+00	7.3601790551e+00
1.0144635383e+02	-2.3114471138e+00	7.4488742806e+00
1.0123222155e+02	-2.2847292020e+00	7.5381005198e+00
1.0101770885e+02	-2.2538788204e+00	7.6284257671e+00
1.0080300513e+02	-2.2187960900e+00	7.7190695738e+00
1.0058831380e+02	-2.1793837505e+00	7.8102640967e+00
1.0037384068e+02	-2.1355505131e+00	7.9016236834e+00
1.0015979310e+02	-2.0872115949e+00	7.9930697316e+00
9.9946375020e+01	-2.0343066295e+00	8.0844090856e+00
9.9733770623e+01	-1.9768805673e+00	8.1754836464e+00
9.9522157503e+01	-1.9150208548e+00	8.2661127217e+00
9.9311711979e+01	-1.8488235008e+00	8.3562409714e+00
9.9102608462e+01	-1.7783927180e+00	8.4457170772e+00
9.8895010818e+01	-1.7038440061e+00	8.5345394394e+00
9.8689065147e+01	-1.6253068163e+00	8.6226102093e+00
9.8484912740e+01	-1.5429181719e+00	8.7099049881e+00
9.8282691283e+01	-1.4568214120e+00	8.7963551806e+00
9.8082530649e+01	-1.3671686954e+00	8.8819235882e+00
9.7884535644e+01	-1.2741347161e+00	8.9665600021e+00
9.7688799840e+01	-1.1779045907e+00	9.0502410295e+00
9.7495412498e+01	-1.0786669386e+00	9.1329122249e+00
9.7304460395e+01	-9.7660776274e-01	9.2145434077e+00
9.7116040123e+01	-8.7187121796e-01	9.2950737959e+00
9.6930249477e+01	-7.6458281211e-01	9.3744651365e+00
9.6747180736e+01	-6.5487084545e-01	9.4526624679e+00
9.6566923151e+01	-5.4286333459e-01	9.5296269870e+00
9.6389570724e+01	-4.2867859430e-01	9.6053091449e+00
9.6215213637e+01	-3.1243406062e-01	9.6796655728e+00
9.6043933488e+01	-1.9425124387e-01	9.7526568602e+00
9.5875749233e+01	-7.4321675854e-02	9.8242692305e+00
9.5710611871e+01	4.7082423303e-02	9.8945206184e+00
9.5548467823e+01	1.6969025468e-01	9.9634316741e+00
9.5389258819e+01	2.9323811643e-01	1.0031024724e+01
9.5232902228e+01	4.1746855664e-01	1.0097334518e+01
9.5079307883e+01	5.4213202990e-01	1.0162398247e+01
9.4928389303e+01	6.6698998058e-01	1.0226252746e+01
9.4780104406e+01	7.9186904191e-01	1.0288916408e+01
9.4634457472e+01	9.1666766374e-01	1.0350387287e+01
9.4491452428e+01	1.0412906901e+00	1.0410664151e+01
9.4351117937e+01	1.1656726359e+00	1.0469736339e+01
9.4213542122e+01	1.2898162119e+00	1.0527564911e+01
9.4078812932e+01	1.4137304506e+00	1.0584113322e+01
9.3946998774e+01	1.5374085269e+00	1.0639352384e+01
9.3818121507e+01	1.6607930548e+00	1.0693272738e+01
9.3692188110e+01	1.7838146832e+00	1.0745871869e+01
9.3569207121e+01	1.9064105992e+00	1.0797147498e+01
9.3449213997e+01	2.0285469041e+00	1.0847085092e+01
9.3332246432e+01	2.1501978624e+00	1.0895668124e+01
9.3218327415e+01	2.2713295219e+00	1.0942889537e+01
9.3107442118e+01	2.3918736730e+00	1.0988756578e+01
9.2999562291e+01	2.5117535729e+00	1.1033281431e+01
9.2894665291e+01	2.6309024608e+00	1.1076477385e+01
9.2792760103e+01	2.7492855900e+00	1.1118342594e+01
9.2693857094e+01	2.8668756965e+00	1.1158872017e+01
9.2597947487e+01	2.9836325015e+00	1.1198072127e+01
9.2505002425e+01	3.0995002924e+00	1.1235959141e+01
9.2414990844e+01	3.2144263023e+00	1.1272547781e+01
9.2327893401e+01	3.3283704024e+00	1.1307847784e+01
9.2243689924e+01	3.4412971246e+00	1.1341870696e+01
9.2162322340e+01	3.5531467384e+00	1.1374644249e+01
9.2083690378e+01	3.6638288341e+00	1.1406214304e+01
9.2007672180e+01	3.7732482469e+00	1.1436636572e+01
9.1934058303e+01	3.8812712955e+00	1.1466004046e+01
9.1862656784e+01	3.9877765095e+00	1.1494402628e+01
9.1793695095e+01	4.0928877439e+00	1.1521735655e+01
9.1727681622e+01	4.1969147302e+00	1.1547783528e+01
9.1664643782e+01	4.2999089566e+00	1.1572536312e+01
9.1603747052e+01	4.4013988693e+00	1.1596358912e+01
9.1544099125e+01	4.5008709139e+00	1.1619642640e+01
9.1484341451e+01	4.5974925754e+00	1.1642985244e+01
9.1422896555e+01	4.6902498208e+00	1.1667082787e+01
9.1358623115e+01	4.7782910527e+00	1.1692445501e+01
9.1291271469e+01	4.8610332297e+00	1.1719197936e+01
9.1220808350e+01	4.9380381679e+00	1.1747370054e+01
9.1147578012e+01	5.0092170301e+00	1.1776823125e+01
9.1072155492e+01	5.0747366066e+00	1.1807314830e+01
9.0994968243e+01	5.1346266831e+00	1.1838671347e+01
9.0916194610e+01	5.1885784019e+00	1.1870827774e+01
9.0836008492e+01	5.2363218874e+00	1.1903720640e+01
9.0754738679e+01	5.2778086881e+00	1.1937215500e+01
9.0672706474e+01	5.3129717363e+00	1.1971181316e+01
9.0589895864e+01	5.3402692678e+00	1.2006036036e+01
9.0506260357e+01	5.3574093110e+00	1.2051377775e+01
9.0423008279e+01	5.3629209759e+00	1.2098104542e+01
9.0342034460e+01	5.3561416308e+00	1.2132654581e+01
9.0264484289e+01	5.3393320592e+00	1.2166002706e+01
9.0190802767e+01	5.3157442116e+00	1.2197876733e+01
9.0121562781e+01	5.2856741232e+00	1.2228021367e+01
9.0057107944e+01	5.2497624907e+00	1.2256269164e+01
8.9997463929e+01	5.2093298612e+00	1.2282581333e+01
8.9942632148e+01	5.1655140311e+00	1.2306926572e+01
1.1214081538e+02	9.7368158985e-01	4.6909656736e+00
1.1212504860e+02	9.9230794498e-01	4.6912189111e+00
1.1210650249e+02	1.0091566285e+00	4.6915174645e+00
1.1208523580e+02	1.0237164003e+00	4.6918604693e+00
1.1206153885e+02	1.0355773651e+00	4.6922432898e+00
1.1203583502e+02	1.0444958725e+00	4.6926739017e+00
1.1200853232e+02	1.0503977945e+00	4.6931406445e+00
1.1198000670e+02	1.0533340433e+00	4.6936287579e+00
1.1195057617e+02	1.0534707752e+00	4.6941328207e+00
1.1192045979e+02	1.0510144521e+00	4.6953405213e+00
1.1188981825e+02	1.0462023126e+00	4.6965861859e+00
1.1185873230e+02	1.0392407151e+00	4.6978506938e+00
1.1182725477e+02	1.0303407168e+00	4.6991318070e+00
1.1179539390e+02	1.0196577090e+00	4.7004291152e+00
1.1176314635e+02	1.0073477946e+00	4.7017426763e+00
1.1173048951e+02	9.9352301764e-01	4.7032040812e+00
1.1169739677e+02	9.7828132458e-01	4.7048354953e+00
1.1166383289e+02	9.6171132641e-01	4.7064897468e+00
1.1162976388e+02	9.4386650690e-01	4.7082419015e+00
1.1159515166e+02	9.2480971316e-01	4.7101244099e+00
1.1155995745e+02	9.0458081958e-01	4.7120382432e+00
1.1152414614e+02	8.8320864336e-01	4.7139857741e+00
1.1148767770e+02	8.6072877229e-01	4.7159691189e+00
1.1145051572e+02	8.3715740309e-01	4.7179902061e+00
1.1141262551e+02	8.1250820449e-01	4.7202930626e+00
1.1137396827e+02	7.8679947202e-01	4.7227265803e+00
1.1133450906e+02	7.6003605603e-01	4.7252214195e+00
1.1129421401e+02	7.3222164006e-01	4.7278538932e+00
1.1125304572e+02	7.0336402427e-01	4.7305426977e+00
1.1121096940e+02	6.7346254565e-01	4.7332904745e+00
1.1116795153e+02	6.4251481141e-01	4.7360993495e+00
1.1112395547e+02	6.1052220914e-01	4.7390372233e+00
1.1107894562e+02	5.7748172255e-01	4.7422161566e+00
1.1103288785e+02	5.4338800390e-01	4.7454883568e+00
1.1098574540e+02	5.0823899384e-01	4.7493632084e+00
1.1093748114e+02	4.7203124313e-01	4.7533267851e+00
1.1088805920e+02	4.3475914419e-01	4.7573845041e+00
1.1083744146e+02	3.9641994375e-01	4.7615393998e+00
1.1078558849e+02	3.5701145162e-01	4.7657946078e+00
1.1073246139e+02	3.1653042367e-01	4.7701532185e+00
1.1067801910e+02	2.7497639001e-01	4.7753881311e+00
1.1062221865e+02	2.3235075324e-01	4.7808279462e+00
1.1056501644e+02	1.8865570852e-01	4.7867538127e+00
1.1050636636e+02	1.4389671471e-01	4.7928262425e+00
1.1044621984e+02	9.8082473804e-02	4.7990516600e+00
1.1038452610e+02	5.1224930650e-02	4.8055106572e+00
1.1032123122e+02	3.3404417872e-03	4.8122511422e+00
1.1025627768e+02	-4.5549058958e-02	4.8203317284e+00
1.1018960411e+02	-9.5415609221e-02	4.8286185823e+00
1.1012114494e+02	-1.4622468258e-01	4.8371245078e+00
1.1005082943e+02	-1.9793250067e-01	4.8458581404e+00
1.0997858172e+02	-2.5048689016e-01	4.8552171594e+00
1.0990432077e+02	-3.0382524708e-01	4.8652713885e+00
1.0982795986e+02	-3.5787358068e-01	4.8762217927e+00
1.0974940768e+02	-4.1254768247e-01	4.8874809251e+00
1.0966856993e+02	-4.6775245066e-01	4.8990641755e+00
1.0958534959e+02	-5.2338420494e-01	4.9114652580e+00
1.0949965338e+02	-5.7933556298e-01	4.9250328089e+00
1.0941139037e+02	-6.3549691406e-01	4.9393889963e+00
1.0932048207e+02	-6.9176769897e-01	4.9541711020e+00
1.0922685958e+02	-7.4805680482e-01	4.9693913653e+00
1.0913047151e+02	-8.0429289037e-01	4.9866218839e+00
1.0903127951e+02	-8.6042258662e-01	5.0047517775e+00
1.0892925938e+02	-9.1641105204e-01	5.0234283416e+00
1.0882439594e+02	-9.7223816622e-01	5.0426225711e+00
1.0871667982e+02	-1.0278900833e+00	5.0644711823e+00
1.0860610119e+02	-1.0833503032e+00	5.0871378383e+00
1.0849265346e+02	-1.1386087543e+00	5.1103895121e+00
1.0837633194e+02	-1.1936550386e+00	5.1353184184e+00
1.0825710964e+02	-1.2484151882e+00	5.1624671906e+00
1.0813497426e+02	-1.3028714385e+00	5.1903572101e+00
1.0801000660e+02	-1.3572217721e+00	5.2193872491e+00
1.0788208348e+02	-1.4110492399e+00	5.2513103668e+00
1.0775080951e+02	-1.4633396345e+00	5.2842853159e+00
1.0761615100e+02	-1.5140517537e+00	5.3185284817e+00
1.0747829488e+02	-1.5636171141e+00	5.3553093328e+00
1.0733745677e+02	-1.6125259238e+00	5.3931702563e+00
1.0719384626e+02	-1.6612181614e+00	5.4322753756e+00
1.0704747454e+02	-1.7096214799e+00	5.4732860501e+00
1.0689827055e+02	-1.7574809963e+00	5.5152260197e+00
1.0674615936e+02	-1.8045208135e+00	5.5587441748e+00
1.0659107602e+02	-1.8504847202e+00	5.6038941721e+00
1.0643302386e+02	-1.8952700229e+00	5.6499921338e+00
1.0627203232e+02	-1.9388161122e+00	5.6981262279e+00
1.0610813688e+02	-1.9810640218e+00	5.7473450421e+00
1.0594137565e+02	-2.0219454783e+00	5.7981238214e+00
1.0577177464e+02	-2.0613482679e+00	5.8506394022e+00
1.0559935922e+02	-2.0991464626e+00	5.9043581810e+00
1.0542415913e+02	-2.1352110326e+00	5.9603528930e+00
1.0524621004e+02	-2.1694080359e+00	6.0175145536e+00
1.0506555863e+02	-2.2015906801e+00	6.0771207136e+00
1.0488225871e+02	-2.2316057337e+00	6.1381868993e+00
1.0469636950e+02	-2.2592966866e+00	6.2014315799e+00
1.0450795595e+02	-2.2845132238e+00	6.2665100153e+00
1.0431709544e+02	-2.3071800621e+00	6.3334308571e+00
1.0412387694e+02	-2.3272638947e+00	6.4024332265e+00
1.0392839579e+02	-2.3447377700e+00	6.4730537722e+00
1.0373075371e+02	-2.3595778685e+00	6.5458085592e+00
1.0353105448e+02	-2.3716876720e+00	6.6200545203e+00
1.0332939934e+02	-2.3808899637e+00	6.6963296035e+00
1.0312589398e+02	-2.3870017317e+00	6.7740527462e+00
1.0292064917e+02	-2.3898400413e+00	6.8535935347e+00
1.0271378562e+02	-2.3892693744e+00	6.9345827182e+00
1.0250543733e+02	-2.3852108628e+00	7.0170870670e+00
1.0229574396e+02	-2.3775931834e+00	7.1010489421e+00
1.0208485000e+02	-2.3663499530e+00	7.1861646960e+00
1.0187290746e+02	-2.3514032330e+00	7.2727345326e+00
1.0166007749e+02	-2.3326431183e+00	7.3601334702e+00
1.0144652559e+02	-2.3099589422e+00	7.4488170496e+00
1.0123242081e+02	-2.2832444634e+00	7.5380309459e+00
1.0101793615e+02	-2.2523981155e+00	7.6283442248e+00
1.0080326106e+02	-2.2173200626e+00	7.7189750398e+00
1.0058859892e+02	-2.1779130838e+00	7.8101569452e+00
1.0037415556e+02	-2.1340859293e+00	7.9015030427e+00
1.0016013828e+02	-2.0857538560e+00	7.9929358700e+00
9.9946750633e+01	-2.0328564331e+00	8.0842616183e+00
9.9734176177e+01	-1.9754384578e+00	8.1753230530e+00
9.9522592497e+01	-1.9135873503e+00	8.2659392402e+00
9.9312175902e+01	-1.8473990957e+00	8.3560549231e+00
9.9103100796e+01	-1.7769778817e+00	8.4455184961e+00
9.8895530959e+01	-1.7024391545e+00	8.5343287076e+00
9.8689612454e+01	-1.6239123238e+00	8.6223874063e+00
9.8485486570e+01	-1.5415343826e+00	8.7096704611e+00
9.8283290995e+01	-1.4554486411e+00	8.7961090929e+00
9.8083155511e+01	-1.3658071883e+00	8.8816662197e+00
9.7885184791e+01	-1.2727846190e+00	8.9662917185e+00
9.7689472415e+01	-1.1765660105e+00	9.0499620626e+00
9.7496107657e+01	-1.0773399462e+00	9.1326230377e+00
9.7305177442e+01	-9.7529246859e-01	9.2142441649e+00
9.7116778671e+01	-8.7056787572e-01	9.2947647708e+00
9.6931009148e+01	-7.6329166777e-01	9.3741463933e+00
9.6747961149e+01	-6.5359213131e-01	9.4523342300e+00
9.6567723991e+01	-5.4159731326e-01	9.5292893713e+00
9.6390391743e+01	-4.2742556528e-01	9.6049622848e+00
9.6216054581e+01	-3.1119431560e-01	9.6793095634e+00
9.6044793981e+01	-1.9302498730e-01	9.7522918763e+00
9.5876628014e+01	-7.3108457891e-02	9.8238958224e+00
9.5711507536e+01	4.8283230906e-02	9.8941393773e+00
9.5549379025e+01	1.7087931554e-01	9.9630431846e+00
9.5390184214e+01	2.9441616518e-01	1.0030629559e+01
9.5233840437e+01	4.1863642577e-01	1.0096933269e+01
9.5080257584e+01	5.4329057296e-01	1.0161991482e+01
9.4929349324e+01	6.6813998724e-01	1.0225840967e+01
9.4781074314e+01	7.9301072157e-01	1.0288499804e+01
9.4635436991e+01	9.1780110825e-01	1.0349965987e+01
9.4492441298e+01	1.0424159851e+00	1.0410238267e+01
9.4352116466e+01	1.1667893693e+00	1.0469305752e+01
9.4214550889e+01	1.2909237063e+00	1.0527129394e+01
9.4079832469e+01	1.4148280382e+00	1.0583672658e+01
9.3948029296e+01	1.5384958070e+00	1.0638906504e+01
9.3819162926e+01	1.6618699018e+00	1.0692821696e+01
9.3693240331e+01	1.7848809793e+00	1.0745415723e+01
9.3570270202e+01	1.9074660679e+00	1.0796686234e+01
9.3450288206e+01	2.0295910443e+00	1.0846618622e+01
9.3333332004e+01	2.1512301842e+00	1.0895196379e+01
9.3219424366e+01	2.2723497440e+00	1.0942412510e+01
9.3108550207e+01	2.3928817870e+00	1.0988274406e+01
9.3000681274e+01	2.5127495798e+00	1.1032794243e+01
9.2895795139e+01	2.6318861258e+00	1.1075985188e+01
9.2793900990e+01	2.7502564308e+00	1.1117845365e+01
9.2695009136e+01	2.8678332739e+00	1.1158369732e+01
9.2599110581e+01	2.9845766231e+00	1.1197564823e+01
9.2506176412e+01	3.1004308339e+00	1.1235446904e+01
9.2416175626e+01	3.2153430599e+00	1.1272030701e+01
9.2329088976e+01	3.3292730407e+00	1.1307325872e+01
9.2244896214e+01	3.4421853928e+00	1.1341344000e+01
9.2163538781e+01	3.5540210534e+00	1.1374113022e+01
9.2084916323e+01	3.6646897714e+00	1.1405678831e+01
9.2008906551e+01	3.7740970597e+00	1.1436097302e+01
9.1935299570e+01	3.8821099909e+00	1.1465461618e+01
9.1863904512e+01	3.9886055628e+00	1.1493857235e+01
9.1794953161e+01	4.0937010240e+00	1.1521185778e+01
9.1728953696e+01	4.1977059205e+00	1.1547227755e+01
9.1665926017e+01	4.3006835703e+00	1.1571976152e+01
9.1605032888e+01	4.4021674915e+00	1.1595797000e+01
9.1545380860e+01	4.5016463559e+00	1.1619081997e+01
9.1485605320e+01	4.5982968079e+00	1.1642431248e+01
9.1424127627e+01	4.6911034110e+00	1.1666541278e+01
9.1359810167e+01	4.7792048703e+00	1.1691921017e+01
9.1292406077e+01	4.8620114012e+00	1.1718693890e+01
9.1221882912e+01	4.9390819452e+00	1.1746889662e+01
9.1148591109e+01	5.0103205644e+00	1.1776367097e+01
9.1073106640e+01	5.0758939627e+00	1.1806883501e+01
9.0995851838e+01	5.1358363999e+00	1.1838267071e+01
9.0917001993e+01	5.1898402606e+00	1.1870454275e+01